<?xml version="1.0"?>
<VTKFile type="UnstructuredGrid"  version="0.1"  >
<UnstructuredGrid>
<Piece  NumberOfPoints="528" NumberOfCells="1746">
<Points>
<DataArray  type="Float32"  NumberOfComponents="3"  format="ascii">
0 0 0
1 0 0
0 1 0
1 1 0
0 0 1
1 0 1
0 1 1
1 1 1
0.5 0.5 0.5
0.5 0.5 0
1 0.5 0.5
0.5 0 0.5
0.5 0.5 1
0.5 1 0.5
0 0.5 0.5
0.5 0 0
1 0.5 0
0 0.5 0
0.5 1 0
1 0 0.5
0 0 0.5
0.5 0 1
0 0.5 1
0 1 0.5
0.25 0.25 0.25
0.75 0.25 0.25
0.25 0.75 0.25
0.25 0.25 0.75
0.25 0.25 0
0.5 0.25 0.25
0.25 0 0.25
0.25 0.5 0.25
0 0.25 0.25
0.25 0.25 0.5
0.75 0.25 0
0.75 0 0.25
0.25 0.75 0
0 0.75 0.25
0.25 0 0.75
0 0.25 0.75
0.25 0 0
0.5 0.25 0
0 0.25 0
0.25 0.5 0
0.5 0 0.25
0 0 0.25
0.25 0 0.5
0 0.5 0.25
0 0.25 0.5
0.125 0.125 0.125
0.375 0.125 0.125
0.125 0.375 0.125
0.125 0.125 0.375
0.125 0.125 0
0.25 0.125 0.125
0.125 0 0.125
0.125 0.25 0.125
0 0.125 0.125
0.125 0.125 0.25
0.375 0.125 0
0.375 0 0.125
0.125 0.375 0
0 0.375 0.125
0.125 0 0.375
0 0.125 0.375
0.125 0 0
0.25 0.125 0
0 0.125 0
0.125 0.25 0
0.25 0 0.125
0 0 0.125
0.125 0 0.25
0 0.25 0.125
0 0.125 0.25
0.0625 0.0625 0.0625
0.1875 0.0625 0.0625
0.0625 0.1875 0.0625
0.0625 0.0625 0.1875
0.0625 0.0625 0
0.125 0.0625 0.0625
0.0625 0 0.0625
0.0625 0.125 0.0625
0 0.0625 0.0625
0.0625 0.0625 0.125
0.1875 0.0625 0
0.1875 0 0.0625
0.0625 0.1875 0
0 0.1875 0.0625
0.0625 0 0.1875
0 0.0625 0.1875
0.0625 0 0
0.125 0.0625 0
0 0.0625 0
0.0625 0.125 0
0.125 0 0.0625
0 0 0.0625
0.0625 0 0.125
0 0.125 0.0625
0 0.0625 0.125
0.03125 0.03125 0.03125
0.09375 0.03125 0.03125
0.03125 0.09375 0.03125
0.03125 0.03125 0.09375
0.03125 0.03125 0
0.0625 0.03125 0.03125
0.03125 0 0.03125
0.03125 0.0625 0.03125
0 0.03125 0.03125
0.03125 0.03125 0.0625
0.09375 0.03125 0
0.09375 0 0.03125
0.03125 0.09375 0
0 0.09375 0.03125
0.03125 0 0.09375
0 0.03125 0.09375
0.03125 0 0
0.0625 0.03125 0
0 0.03125 0
0.03125 0.0625 0
0.0625 0 0.03125
0 0 0.03125
0.03125 0 0.0625
0 0.0625 0.03125
0 0.03125 0.0625
0.015625 0.015625 0.015625
0.046875 0.015625 0.015625
0.015625 0.046875 0.015625
0.015625 0.015625 0.046875
0.015625 0.015625 0
0.03125 0.015625 0.015625
0.015625 0 0.015625
0.015625 0.03125 0.015625
0 0.015625 0.015625
0.015625 0.015625 0.03125
0.046875 0.015625 0
0.046875 0 0.015625
0.015625 0.046875 0
0 0.046875 0.015625
0.015625 0 0.046875
0 0.015625 0.046875
0.015625 0 0
0.03125 0.015625 0
0 0.015625 0
0.015625 0.03125 0
0.03125 0 0.015625
0 0 0.015625
0.015625 0 0.03125
0 0.03125 0.015625
0 0.015625 0.03125
0.0078125 0.0078125 0.0078125
0.0234375 0.0078125 0.0078125
0.0078125 0.0234375 0.0078125
0.0078125 0.0078125 0.0234375
0.0078125 0.0078125 0
0.015625 0.0078125 0.0078125
0.0078125 0 0.0078125
0.0078125 0.015625 0.0078125
0 0.0078125 0.0078125
0.0078125 0.0078125 0.015625
0.0234375 0.0078125 0
0.0234375 0 0.0078125
0.0078125 0.0234375 0
0 0.0234375 0.0078125
0.0078125 0 0.0234375
0 0.0078125 0.0234375
0.0078125 0 0
0.015625 0.0078125 0
0 0.0078125 0
0.0078125 0.015625 0
0.015625 0 0.0078125
0 0 0.0078125
0.0078125 0 0.015625
0 0.015625 0.0078125
0 0.0078125 0.015625
0.00390625 0.00390625 0.00390625
0.0117188 0.00390625 0.00390625
0.00390625 0.0117188 0.00390625
0.00390625 0.00390625 0.0117188
0.00390625 0.00390625 0
0.0078125 0.00390625 0.00390625
0.00390625 0 0.00390625
0.00390625 0.0078125 0.00390625
0 0.00390625 0.00390625
0.00390625 0.00390625 0.0078125
0.0117188 0.00390625 0
0.0117188 0 0.00390625
0.00390625 0.0117188 0
0 0.0117188 0.00390625
0.00390625 0 0.0117188
0 0.00390625 0.0117188
0.00390625 0 0
0.0078125 0.00390625 0
0 0.00390625 0
0.00390625 0.0078125 0
0.0078125 0 0.00390625
0 0 0.00390625
0.00390625 0 0.0078125
0 0.0078125 0.00390625
0 0.00390625 0.0078125
0.00195312 0.00195312 0.00195312
0.00585938 0.00195312 0.00195312
0.00195312 0.00585938 0.00195312
0.00195312 0.00195312 0.00585938
0.00195312 0.00195312 0
0.00390625 0.00195312 0.00195312
0.00195312 0 0.00195312
0.00195312 0.00390625 0.00195312
0 0.00195312 0.00195312
0.00195312 0.00195312 0.00390625
0.00585938 0.00195312 0
0.00585938 0 0.00195312
0.00195312 0.00585938 0
0 0.00585938 0.00195312
0.00195312 0 0.00585938
0 0.00195312 0.00585938
0.00195312 0 0
0.00390625 0.00195312 0
0 0.00195312 0
0.00195312 0.00390625 0
0.00390625 0 0.00195312
0 0 0.00195312
0.00195312 0 0.00390625
0 0.00390625 0.00195312
0 0.00195312 0.00390625
0.000976562 0.000976562 0.000976562
0.00292969 0.000976562 0.000976562
0.000976562 0.00292969 0.000976562
0.000976562 0.000976562 0.00292969
0.000976562 0.000976562 0
0.00195312 0.000976562 0.000976562
0.000976562 0 0.000976562
0.000976562 0.00195312 0.000976562
0 0.000976562 0.000976562
0.000976562 0.000976562 0.00195312
0.00292969 0.000976562 0
0.00292969 0 0.000976562
0.000976562 0.00292969 0
0 0.00292969 0.000976562
0.000976562 0 0.00292969
0 0.000976562 0.00292969
0.000976562 0 0
0.00195312 0.000976562 0
0 0.000976562 0
0.000976562 0.00195312 0
0.00195312 0 0.000976562
0 0 0.000976562
0.000976562 0 0.00195312
0 0.00195312 0.000976562
0 0.000976562 0.00195312
0.000488281 0.000488281 0.000488281
0.00146484 0.000488281 0.000488281
0.000488281 0.00146484 0.000488281
0.000488281 0.000488281 0.00146484
0.000488281 0.000488281 0
0.000976562 0.000488281 0.000488281
0.000488281 0 0.000488281
0.000488281 0.000976562 0.000488281
0 0.000488281 0.000488281
0.000488281 0.000488281 0.000976562
0.00146484 0.000488281 0
0.00146484 0 0.000488281
0.000488281 0.00146484 0
0 0.00146484 0.000488281
0.000488281 0 0.00146484
0 0.000488281 0.00146484
0.000488281 0 0
0.000976562 0.000488281 0
0 0.000488281 0
0.000488281 0.000976562 0
0.000976562 0 0.000488281
0 0 0.000488281
0.000488281 0 0.000976562
0 0.000976562 0.000488281
0 0.000488281 0.000976562
0.000244141 0.000244141 0.000244141
0.000732422 0.000244141 0.000244141
0.000244141 0.000732422 0.000244141
0.000244141 0.000244141 0.000732422
0.000244141 0.000244141 0
0.000488281 0.000244141 0.000244141
0.000244141 0 0.000244141
0.000244141 0.000488281 0.000244141
0 0.000244141 0.000244141
0.000244141 0.000244141 0.000488281
0.000732422 0.000244141 0
0.000732422 0 0.000244141
0.000244141 0.000732422 0
0 0.000732422 0.000244141
0.000244141 0 0.000732422
0 0.000244141 0.000732422
0.000244141 0 0
0.000488281 0.000244141 0
0 0.000244141 0
0.000244141 0.000488281 0
0.000488281 0 0.000244141
0 0 0.000244141
0.000244141 0 0.000488281
0 0.000488281 0.000244141
0 0.000244141 0.000488281
0.00012207 0.00012207 0.00012207
0.000366211 0.00012207 0.00012207
0.00012207 0.000366211 0.00012207
0.00012207 0.00012207 0.000366211
0.00012207 0.00012207 0
0.000244141 0.00012207 0.00012207
0.00012207 0 0.00012207
0.00012207 0.000244141 0.00012207
0 0.00012207 0.00012207
0.00012207 0.00012207 0.000244141
0.000366211 0.00012207 0
0.000366211 0 0.00012207
0.00012207 0.000366211 0
0 0.000366211 0.00012207
0.00012207 0 0.000366211
0 0.00012207 0.000366211
0.00012207 0 0
0.000244141 0.00012207 0
0 0.00012207 0
0.00012207 0.000244141 0
0.000244141 0 0.00012207
0 0 0.00012207
0.00012207 0 0.000244141
0 0.000244141 0.00012207
0 0.00012207 0.000244141
6.10352e-05 6.10352e-05 6.10352e-05
0.000183105 6.10352e-05 6.10352e-05
6.10352e-05 0.000183105 6.10352e-05
6.10352e-05 6.10352e-05 0.000183105
6.10352e-05 6.10352e-05 0
0.00012207 6.10352e-05 6.10352e-05
6.10352e-05 0 6.10352e-05
6.10352e-05 0.00012207 6.10352e-05
0 6.10352e-05 6.10352e-05
6.10352e-05 6.10352e-05 0.00012207
0.000183105 6.10352e-05 0
0.000183105 0 6.10352e-05
6.10352e-05 0.000183105 0
0 0.000183105 6.10352e-05
6.10352e-05 0 0.000183105
0 6.10352e-05 0.000183105
6.10352e-05 0 0
0.00012207 6.10352e-05 0
0 6.10352e-05 0
6.10352e-05 0.00012207 0
0.00012207 0 6.10352e-05
0 0 6.10352e-05
6.10352e-05 0 0.00012207
0 0.00012207 6.10352e-05
0 6.10352e-05 0.00012207
3.05176e-05 3.05176e-05 3.05176e-05
9.15527e-05 3.05176e-05 3.05176e-05
3.05176e-05 9.15527e-05 3.05176e-05
3.05176e-05 3.05176e-05 9.15527e-05
3.05176e-05 3.05176e-05 0
6.10352e-05 3.05176e-05 3.05176e-05
3.05176e-05 0 3.05176e-05
3.05176e-05 6.10352e-05 3.05176e-05
0 3.05176e-05 3.05176e-05
3.05176e-05 3.05176e-05 6.10352e-05
9.15527e-05 3.05176e-05 0
9.15527e-05 0 3.05176e-05
3.05176e-05 9.15527e-05 0
0 9.15527e-05 3.05176e-05
3.05176e-05 0 9.15527e-05
0 3.05176e-05 9.15527e-05
3.05176e-05 0 0
6.10352e-05 3.05176e-05 0
0 3.05176e-05 0
3.05176e-05 6.10352e-05 0
6.10352e-05 0 3.05176e-05
0 0 3.05176e-05
3.05176e-05 0 6.10352e-05
0 6.10352e-05 3.05176e-05
0 3.05176e-05 6.10352e-05
1.52588e-05 1.52588e-05 1.52588e-05
4.57764e-05 1.52588e-05 1.52588e-05
1.52588e-05 4.57764e-05 1.52588e-05
1.52588e-05 1.52588e-05 4.57764e-05
1.52588e-05 1.52588e-05 0
3.05176e-05 1.52588e-05 1.52588e-05
1.52588e-05 0 1.52588e-05
1.52588e-05 3.05176e-05 1.52588e-05
0 1.52588e-05 1.52588e-05
1.52588e-05 1.52588e-05 3.05176e-05
4.57764e-05 1.52588e-05 0
4.57764e-05 0 1.52588e-05
1.52588e-05 4.57764e-05 0
0 4.57764e-05 1.52588e-05
1.52588e-05 0 4.57764e-05
0 1.52588e-05 4.57764e-05
1.52588e-05 0 0
3.05176e-05 1.52588e-05 0
0 1.52588e-05 0
1.52588e-05 3.05176e-05 0
3.05176e-05 0 1.52588e-05
0 0 1.52588e-05
1.52588e-05 0 3.05176e-05
0 3.05176e-05 1.52588e-05
0 1.52588e-05 3.05176e-05
7.62939e-06 7.62939e-06 7.62939e-06
2.28882e-05 7.62939e-06 7.62939e-06
7.62939e-06 2.28882e-05 7.62939e-06
7.62939e-06 7.62939e-06 2.28882e-05
7.62939e-06 7.62939e-06 0
1.52588e-05 7.62939e-06 7.62939e-06
7.62939e-06 0 7.62939e-06
7.62939e-06 1.52588e-05 7.62939e-06
0 7.62939e-06 7.62939e-06
7.62939e-06 7.62939e-06 1.52588e-05
2.28882e-05 7.62939e-06 0
2.28882e-05 0 7.62939e-06
7.62939e-06 2.28882e-05 0
0 2.28882e-05 7.62939e-06
7.62939e-06 0 2.28882e-05
0 7.62939e-06 2.28882e-05
7.62939e-06 0 0
1.52588e-05 7.62939e-06 0
0 7.62939e-06 0
7.62939e-06 1.52588e-05 0
1.52588e-05 0 7.62939e-06
0 0 7.62939e-06
7.62939e-06 0 1.52588e-05
0 1.52588e-05 7.62939e-06
0 7.62939e-06 1.52588e-05
3.8147e-06 3.8147e-06 3.8147e-06
1.14441e-05 3.8147e-06 3.8147e-06
3.8147e-06 1.14441e-05 3.8147e-06
3.8147e-06 3.8147e-06 1.14441e-05
3.8147e-06 3.8147e-06 0
7.62939e-06 3.8147e-06 3.8147e-06
3.8147e-06 0 3.8147e-06
3.8147e-06 7.62939e-06 3.8147e-06
[...]
<PointData  Scalars="u"> 
<DataArray  type="Float32"  Name="u"  format="ascii">
 4.691717e-13
 6.681775e-01
 6.681775e-01
 1.054548e+00
 6.681775e-01
 1.054548e+00
 1.054548e+00
 1.311817e+00
 9.278427e-01
 6.628934e-01
 9.841453e-01
 6.628934e-01
 9.841453e-01
 9.841453e-01
 6.628934e-01
 4.733871e-01
 7.269388e-01
 4.733871e-01
 7.269388e-01
 7.269388e-01
 4.733871e-01
 7.269388e-01
 7.269388e-01
 7.269388e-01
 4.096923e-01
 5.646111e-01
 5.646111e-01
 5.646111e-01
 3.280505e-01
 3.614858e-01
 3.280505e-01
 3.614858e-01
 3.280505e-01
 3.614858e-01
 4.319058e-01
 4.319058e-01
 4.319058e-01
 4.319058e-01
 4.319058e-01
 4.319058e-01
 2.075668e-01
 3.419742e-01
 2.075668e-01
 3.419742e-01
 3.419742e-01
 2.075668e-01
 3.419742e-01
 3.419742e-01
 3.419742e-01
 2.134811e-01
 3.076808e-01
 3.076808e-01
 3.076808e-01
 1.610613e-01
 1.899963e-01
 1.610613e-01
 1.899963e-01
 1.610613e-01
 1.899963e-01
 1.799005e-01
 1.799005e-01
 1.799005e-01
 1.799005e-01
 1.799005e-01
 1.799005e-01
 1.077318e-01
 1.710832e-01
 1.077318e-01
 1.710832e-01
 1.710832e-01
 1.077318e-01
 1.710832e-01
 1.710832e-01
 1.710832e-01
 1.067707e-01
 1.546628e-01
 1.546628e-01
 1.546628e-01
 8.142414e-02
 9.355042e-02
 8.142414e-02
 9.355042e-02
 8.142414e-02
 9.355042e-02
 9.669687e-02
 9.669687e-02
 9.669687e-02
 9.669687e-02
 9.669687e-02
 9.669687e-02
 5.338176e-02
 8.486376e-02
 5.338176e-02
 8.486376e-02
 8.486376e-02
 5.338176e-02
 8.486376e-02
 8.486376e-02
 8.486376e-02
 5.309780e-02
 7.713234e-02
 7.713234e-02
 7.713234e-02
 4.056299e-02
 4.655182e-02
 4.056299e-02
 4.655182e-02
 4.056299e-02
 4.655182e-02
 4.753910e-02
 4.753910e-02
 4.753910e-02
 4.753910e-02
 4.753910e-02
 4.753910e-02
 2.671490e-02
 4.254755e-02
 2.671490e-02
 4.254755e-02
 4.254755e-02
 2.671490e-02
 4.254755e-02
 4.254755e-02
 4.254755e-02
 2.664503e-02
 3.872496e-02
 3.872496e-02
 3.872496e-02
 2.029797e-02
 2.335447e-02
 2.029797e-02
 2.335447e-02
 2.029797e-02
 2.335447e-02
 2.381179e-02
 2.381179e-02
 2.381179e-02
 2.381179e-02
 2.381179e-02
 2.381179e-02
 1.335923e-02
 2.122525e-02
 1.335923e-02
 2.122525e-02
 2.122525e-02
 1.335923e-02
 2.122525e-02
 2.122525e-02
 2.122525e-02
 1.330285e-02
 1.933664e-02
 1.933664e-02
 1.933664e-02
 1.014882e-02
 1.165505e-02
 1.014882e-02
 1.165505e-02
 1.014882e-02
 1.165505e-02
 1.192040e-02
 1.192040e-02
 1.192040e-02
 1.192040e-02
 1.192040e-02
 1.192040e-02
 6.678593e-03
 1.062159e-02
 6.678593e-03
 1.062159e-02
 1.062159e-02
 6.678593e-03
 1.062159e-02
 1.062159e-02
 1.062159e-02
 6.654610e-03
 9.673622e-03
 9.673622e-03
 9.673622e-03
 5.074020e-03
 5.831081e-03
 5.074020e-03
 5.831081e-03
 5.074020e-03
 5.831081e-03
 5.955325e-03
 5.955325e-03
 5.955325e-03
 5.955325e-03
 5.955325e-03
 5.955325e-03
 3.339411e-03
 5.308884e-03
 3.339411e-03
 5.308884e-03
 5.308884e-03
 3.339411e-03
 5.308884e-03
 5.308884e-03
 5.308884e-03
 3.326933e-03
 4.836284e-03
 4.836284e-03
 4.836284e-03
 2.537123e-03
 2.915028e-03
 2.537123e-03
 2.915028e-03
 2.537123e-03
 2.915028e-03
 2.978675e-03
 2.978675e-03
 2.978675e-03
 2.978675e-03
 2.978675e-03
 2.978675e-03
 1.669708e-03
 2.654710e-03
 1.669708e-03
 2.654710e-03
 2.654710e-03
 1.669708e-03
 2.654710e-03
 2.654710e-03
 2.654710e-03
 1.663491e-03
 2.418198e-03
 2.418198e-03
 2.418198e-03
 1.268543e-03
 1.457550e-03
 1.268543e-03
 1.457550e-03
 1.268543e-03
 1.457550e-03
 1.489200e-03
 1.489200e-03
 1.489200e-03
 1.489200e-03
 1.489200e-03
 1.489200e-03
 8.348411e-04
 1.327316e-03
 8.348411e-04
 1.327316e-03
 1.327316e-03
 8.348411e-04
 1.327316e-03
 1.327316e-03
 1.327316e-03
 8.317516e-04
 1.209101e-03
 1.209101e-03
 1.209101e-03
 6.342609e-04
 7.287802e-04
 6.342609e-04
 7.287802e-04
 6.342609e-04
 7.287802e-04
 7.446129e-04
 7.446129e-04
 7.446129e-04
 7.446129e-04
 7.446129e-04
 7.446129e-04
 4.173097e-04
 6.636617e-04
 4.173097e-04
 6.636617e-04
 6.636617e-04
 4.173097e-04
 6.636617e-04
 6.636617e-04
 6.636617e-04
 4.157500e-04
 6.045218e-04
 6.045218e-04
 6.045218e-04
 3.171497e-04
 3.645096e-04
 3.171497e-04
 3.645096e-04
 3.171497e-04
 3.645096e-04
 3.724966e-04
 3.724966e-04
 3.724966e-04
 3.724966e-04
 3.724966e-04
 3.724966e-04
 2.077871e-04
 3.317955e-04
 2.077871e-04
 3.317955e-04
 3.317955e-04
 2.077871e-04
 3.317955e-04
 3.317955e-04
 3.317955e-04
 2.075339e-04
 3.023202e-04
 3.023202e-04
 3.023202e-04
 1.578176e-04
 1.841483e-04
 1.578176e-04
 1.841483e-04
 1.578176e-04
 1.841483e-04
 1.866052e-04
 1.866052e-04
 1.866052e-04
 1.866052e-04
 1.866052e-04
 1.866052e-04
 1.187986e-04
 1.650252e-04
 1.187986e-04
 1.650252e-04
 1.650252e-04
 1.187986e-04
 1.650252e-04
 1.650252e-04
 1.650252e-04
 1.089879e-04
 1.505621e-04
 1.505621e-04
 1.505621e-04
 7.061981e-05
 9.443943e-05
 7.061981e-05
 9.443943e-05
 7.061981e-05
 9.443943e-05
 8.386998e-05
 8.386998e-05
 8.386998e-05
 8.386998e-05
 8.386998e-05
 8.386998e-05
 2.158675e-05
 8.400295e-05
 2.158675e-05
 8.400295e-05
 8.400295e-05
 2.158675e-05
 8.400295e-05
 8.400295e-05
 8.400295e-05
 5.400584e-05
 8.150023e-05
 8.150023e-05
 8.150023e-05
 1.015079e-05
 2.718880e-05
 1.015079e-05
 2.718880e-05
 1.015079e-05
 2.718880e-05
 1.688800e-05
 1.688800e-05
 1.688800e-05
 1.688800e-05
 1.688800e-05
 1.688800e-05
 1.882764e-06
 1.608006e-05
 1.882764e-06
 1.608006e-05
 1.608006e-05
 1.882764e-06
 1.608006e-05
 1.608006e-05
 1.608006e-05
 5.717045e-06
 1.100624e-05
 1.100624e-05
 1.100624e-05
 7.874511e-07
 2.926867e-06
 7.874511e-07
 2.926867e-06
 7.874511e-07
 2.926867e-06
 1.666721e-06
 1.666721e-06
 1.666721e-06
 1.666721e-06
 1.666721e-06
 1.666721e-06
 1.251099e-07
 1.360551e-06
 1.251099e-07
 1.360551e-06
 1.360551e-06
 1.251099e-07
 1.360551e-06
 1.360551e-06
 1.360551e-06
 4.015184e-07
 8.083460e-07
 8.083460e-07
 8.083460e-07
 5.101325e-08
 2.087880e-07
 5.101325e-08
 2.087880e-07
 5.101325e-08
 2.087880e-07
 1.137193e-07
 1.137193e-07
 1.137193e-07
 1.137193e-07
 1.137193e-07
 1.137193e-07
 7.886548e-09
 8.949566e-08
 7.886548e-09
 8.949566e-08
 8.949566e-08
 7.886548e-09
 8.949566e-08
 8.949566e-08
 8.949566e-08
 2.554327e-08
 5.175716e-08
 5.175716e-08
 5.175716e-08
 3.203715e-09
 1.331782e-08
 3.203715e-09
 1.331782e-08
 3.203715e-09
 1.331782e-08
 7.195843e-09
 7.195843e-09
 7.195843e-09
 7.195843e-09
 7.195843e-09
 7.195843e-09
 4.934469e-10
 5.632038e-09
 4.934469e-10
 5.632038e-09
 5.632038e-09
 4.934469e-10
 5.632038e-09
 5.632038e-09
 5.632038e-09
 1.600148e-09
 3.245012e-09
 3.245012e-09
 3.245012e-09
 2.003541e-10
 8.345864e-10
 2.003541e-10
 8.345864e-10
 2.003541e-10
 8.345864e-10
 4.504502e-10
 4.504502e-10
 4.504502e-10
 4.504502e-10
 4.504502e-10
 4.504502e-10
 3.084465e-11
 3.523083e-10
 3.084465e-11
 3.523083e-10
 3.523083e-10
 3.084465e-11
 3.523083e-10
 3.523083e-10
 3.523083e-10
 1.000383e-10
 2.028935e-10
 2.028935e-10
 2.028935e-10
 1.252309e-11
 5.217916e-11
 1.252309e-11
 5.217916e-11
 1.252309e-11
 5.217916e-11
 2.815871e-11
 2.815871e-11
 2.815871e-11
 2.815871e-11
 2.815871e-11
 2.815871e-11
 2.124038e-12
 2.202166e-11
 2.124038e-12
 2.202166e-11
 2.202166e-11
 2.124038e-12
 2.202166e-11
 2.202166e-11
 2.202166e-11
 6.841266e-12
 1.268147e-11
 1.268147e-11
 1.268147e-11
 1.299511e-12
 3.261335e-12
 1.299511e-12
 3.261335e-12
 1.299511e-12
 3.261335e-12
 1.759963e-12
 1.759963e-12
 1.759963e-12
 1.759963e-12
 1.759963e-12
 1.759963e-12
 6.255620e-13
 1.396285e-12
 6.255620e-13
 1.396285e-12
 1.396285e-12
 6.255620e-13
 1.396285e-12
 1.396285e-12
 1.396285e-12
 9.383430e-13
 9.383428e-13
 9.383428e-13
 9.383428e-13
</DataArray> 
</PointData> 
</Piece>
</UnstructuredGrid>
</VTKFile>